Program Version,EnergyPlus, Version 25.1.0-68a4a7c774, YMD=2025.12.04 13:07
1,5,Environment Title[],Latitude[deg],Longitude[deg],Time Zone[],Elevation[m]
2,8,Day of Simulation[],Month[],Day of Month[],DST Indicator[1=yes 0=no],Hour[],StartMinute[],EndMinute[],DayType
3,5,Cumulative Day of Simulation[],Month[],Day of Month[],DST Indicator[1=yes 0=no],DayType  ! When Daily Meters Requested
4,2,Cumulative Days of Simulation[],Month[]  ! When Monthly Meters Requested
5,1,Cumulative Days of Simulation[] ! When Run Period Meters Requested
6,1,Calendar Year of Simulation[] ! When Annual Meters Requested
538,1,DistrictCooling:Facility [J] !TimeStep
11,1,Electricity:Facility [J] !TimeStep
End of Data Dictionary
1,FORTALEZA ANN HTG 99.6% CONDNS DB,  -3.78, -38.53,  -3.00,  25.00
2,1, 1,21, 0, 1, 0.00,10.00,WinterDesignDay
11,76800.0
538,1724425.431242227
2,1, 1,21, 0, 1,10.00,20.00,WinterDesignDay
11,76800.0
538,1712811.910196062
2,1, 1,21, 0, 1,20.00,30.00,WinterDesignDay
11,76800.0
538,1700725.1944697928
2,1, 1,21, 0, 1,30.00,40.00,WinterDesignDay
11,76800.0
538,1689061.6771361432
2,1, 1,21, 0, 1,40.00,50.00,WinterDesignDay
11,76800.0
538,1677857.439038862
2,1, 1,21, 0, 1,50.00,60.00,WinterDesignDay
11,76800.0
538,1667188.073590366
2,1, 1,21, 0, 2, 0.00,10.00,WinterDesignDay
11,76800.0
538,1657122.7167539392
2,1, 1,21, 0, 2,10.00,20.00,WinterDesignDay
11,76800.0
538,1647750.6128095123
2,1, 1,21, 0, 2,20.00,30.00,WinterDesignDay
11,76800.0
538,1639238.4203390996
2,1, 1,21, 0, 2,30.00,40.00,WinterDesignDay
11,76800.0
538,1632168.9709841625
2,1, 1,21, 0, 2,40.00,50.00,WinterDesignDay
11,76800.0
538,1622361.5427110456
2,1, 1,21, 0, 2,50.00,60.00,WinterDesignDay
11,76800.0
538,1612209.3624061202
2,1, 1,21, 0, 3, 0.00,10.00,WinterDesignDay
11,76800.0
538,1601136.890937066
2,1, 1,21, 0, 3,10.00,20.00,WinterDesignDay
11,76800.0
538,1590021.7329364652
2,1, 1,21, 0, 3,20.00,30.00,WinterDesignDay
11,76800.0
538,1579016.2574938503
2,1, 1,21, 0, 3,30.00,40.00,WinterDesignDay
11,76800.0
538,1568222.0019450835
2,1, 1,21, 0, 3,40.00,50.00,WinterDesignDay
11,76800.0
538,1557728.493851639
2,1, 1,21, 0, 3,50.00,60.00,WinterDesignDay
11,76800.0
538,1547700.2904872876
2,1, 1,21, 0, 4, 0.00,10.00,WinterDesignDay
11,76800.0
538,1538126.7654613461
2,1, 1,21, 0, 4,10.00,20.00,WinterDesignDay
11,76800.0
538,1527487.807003872
2,1, 1,21, 0, 4,20.00,30.00,WinterDesignDay
11,76800.0
538,1516741.5486188377
2,1, 1,21, 0, 4,30.00,40.00,WinterDesignDay
11,76800.0
538,1505968.7206221162
2,1, 1,21, 0, 4,40.00,50.00,WinterDesignDay
11,76800.0
538,1495237.070666496
2,1, 1,21, 0, 4,50.00,60.00,WinterDesignDay
11,76800.0
538,1484583.57105387
2,1, 1,21, 0, 5, 0.00,10.00,WinterDesignDay
11,76800.0
538,1474028.848933445
2,1, 1,21, 0, 5,10.00,20.00,WinterDesignDay
11,76800.0
538,1463585.947574567
2,1, 1,21, 0, 5,20.00,30.00,WinterDesignDay
11,76800.0
538,1453264.1171495554
2,1, 1,21, 0, 5,30.00,40.00,WinterDesignDay
11,76800.0
538,1443070.2377910232
2,1, 1,21, 0, 5,40.00,50.00,WinterDesignDay
11,76800.0
538,1433009.4398118302
2,1, 1,21, 0, 5,50.00,60.00,WinterDesignDay
11,76800.0
538,1423085.5124917575
2,1, 1,21, 0, 6, 0.00,10.00,WinterDesignDay
11,76800.0
538,1413301.2335787544
2,1, 1,21, 0, 6,10.00,20.00,WinterDesignDay
11,76800.0
538,1403658.6249569159
2,1, 1,21, 0, 6,20.00,30.00,WinterDesignDay
11,76800.0
538,1394159.1355818582
2,1, 1,21, 0, 6,30.00,40.00,WinterDesignDay
11,76800.0
538,1392645.0370819108
2,1, 1,21, 0, 6,40.00,50.00,WinterDesignDay
11,76800.0
538,1394124.7894265237
2,1, 1,21, 0, 6,50.00,60.00,WinterDesignDay
11,76800.0
538,1398884.8041371196
2,1, 1,21, 0, 7, 0.00,10.00,WinterDesignDay
11,76800.0
538,1403276.1761621886
2,1, 1,21, 0, 7,10.00,20.00,WinterDesignDay
11,76800.0
538,1408534.320359023
2,1, 1,21, 0, 7,20.00,30.00,WinterDesignDay
11,76800.0
538,1416495.0710190134
2,1, 1,21, 0, 7,30.00,40.00,WinterDesignDay
11,76800.0
538,1428251.2811914294
2,1, 1,21, 0, 7,40.00,50.00,WinterDesignDay
11,76800.0
538,1444407.1364134955
2,1, 1,21, 0, 7,50.00,60.00,WinterDesignDay
11,76800.0
538,1464972.0355572943
2,1, 1,21, 0, 8, 0.00,10.00,WinterDesignDay
11,76800.0
538,1493125.7003690999
2,1, 1,21, 0, 8,10.00,20.00,WinterDesignDay
11,76800.0
538,1521101.2454072332
2,1, 1,21, 0, 8,20.00,30.00,WinterDesignDay
11,76800.0
538,1548539.2070225314
2,1, 1,21, 0, 8,30.00,40.00,WinterDesignDay
11,76800.0
538,1572065.5028740163
2,1, 1,21, 0, 8,40.00,50.00,WinterDesignDay
11,76800.0
538,1600881.971707681
2,1, 1,21, 0, 8,50.00,60.00,WinterDesignDay
11,76800.0
538,1635165.7752973726
2,1, 1,21, 0, 9, 0.00,10.00,WinterDesignDay
11,76800.0
538,1670195.2748985435
2,1, 1,21, 0, 9,10.00,20.00,WinterDesignDay
11,76800.0
538,1704229.5967175327
2,1, 1,21, 0, 9,20.00,30.00,WinterDesignDay
11,76800.0
538,1741486.043712758
2,1, 1,21, 0, 9,30.00,40.00,WinterDesignDay
11,76800.0
538,1779230.4813680004
2,1, 1,21, 0, 9,40.00,50.00,WinterDesignDay
11,76800.0
538,1810260.5522127305
2,1, 1,21, 0, 9,50.00,60.00,WinterDesignDay
11,76800.0
538,1846220.062766854
2,1, 1,21, 0,10, 0.00,10.00,WinterDesignDay
11,76800.0
538,1882683.6667144329
2,1, 1,21, 0,10,10.00,20.00,WinterDesignDay
11,76800.0
538,1918954.231152778
2,1, 1,21, 0,10,20.00,30.00,WinterDesignDay
11,76800.0
538,1954370.408407959
2,1, 1,21, 0,10,30.00,40.00,WinterDesignDay
11,76800.0
538,1988490.1166867006
2,1, 1,21, 0,10,40.00,50.00,WinterDesignDay
11,76800.0
538,2021023.3087497863
2,1, 1,21, 0,10,50.00,60.00,WinterDesignDay
11,76800.0
538,2051748.4811438862
2,1, 1,21, 0,11, 0.00,10.00,WinterDesignDay
11,76800.0
538,2080392.2701869821
2,1, 1,21, 0,11,10.00,20.00,WinterDesignDay
11,76800.0
538,2106829.100135714
2,1, 1,21, 0,11,20.00,30.00,WinterDesignDay
11,76800.0
538,2132971.085175035
2,1, 1,21, 0,11,30.00,40.00,WinterDesignDay
11,76800.0
538,2157436.144943102
2,1, 1,21, 0,11,40.00,50.00,WinterDesignDay
11,76800.0
538,2180195.2649154356
2,1, 1,21, 0,11,50.00,60.00,WinterDesignDay
11,76800.0
538,2202654.007511554
2,1, 1,21, 0,12, 0.00,10.00,WinterDesignDay
11,76800.0
538,2223819.8497542683
2,1, 1,21, 0,12,10.00,20.00,WinterDesignDay
11,76800.0
538,2243592.7665563887
2,1, 1,21, 0,12,20.00,30.00,WinterDesignDay
11,76800.0
538,2261915.9456303082
2,1, 1,21, 0,12,30.00,40.00,WinterDesignDay
11,76800.0
538,2278615.4789491096
2,1, 1,21, 0,12,40.00,50.00,WinterDesignDay
11,76800.0
538,2294007.761229544
2,1, 1,21, 0,12,50.00,60.00,WinterDesignDay
11,76800.0
538,2307960.6054313267
2,1, 1,21, 0,13, 0.00,10.00,WinterDesignDay
11,76800.0
538,2320406.8308712253
2,1, 1,21, 0,13,10.00,20.00,WinterDesignDay
11,76800.0
538,2331637.015246108
2,1, 1,21, 0,13,20.00,30.00,WinterDesignDay
11,76800.0
538,2341973.942896675
2,1, 1,21, 0,13,30.00,40.00,WinterDesignDay
11,76800.0
538,2351809.055996789
2,1, 1,21, 0,13,40.00,50.00,WinterDesignDay
11,76800.0
538,2361549.2327071154
2,1, 1,21, 0,13,50.00,60.00,WinterDesignDay
11,76800.0
538,2371529.604265523
2,1, 1,21, 0,14, 0.00,10.00,WinterDesignDay
11,76800.0
538,2381989.8146881876
2,1, 1,21, 0,14,10.00,20.00,WinterDesignDay
11,76800.0
538,2393080.5048379055
2,1, 1,21, 0,14,20.00,30.00,WinterDesignDay
11,76800.0
538,2404880.6718901335
2,1, 1,21, 0,14,30.00,40.00,WinterDesignDay
11,76800.0
538,2417415.115787386
2,1, 1,21, 0,14,40.00,50.00,WinterDesignDay
11,76800.0
538,2430668.184566731
2,1, 1,21, 0,14,50.00,60.00,WinterDesignDay
11,76800.0
538,2444593.635603128
2,1, 1,21, 0,15, 0.00,10.00,WinterDesignDay
11,76800.0
538,2459121.5796338054
2,1, 1,21, 0,15,10.00,20.00,WinterDesignDay
11,76800.0
538,2474163.4816885386
2,1, 1,21, 0,15,20.00,30.00,WinterDesignDay
11,76800.0
538,2489615.889427746
2,1, 1,21, 0,15,30.00,40.00,WinterDesignDay
11,76800.0
538,2505363.2862907182
2,1, 1,21, 0,15,40.00,50.00,WinterDesignDay
11,76800.0
538,2521223.207741929
2,1, 1,21, 0,15,50.00,60.00,WinterDesignDay
11,76800.0
538,2537175.776664646
2,1, 1,21, 0,16, 0.00,10.00,WinterDesignDay
11,76800.0
538,2550265.188208982
2,1, 1,21, 0,16,10.00,20.00,WinterDesignDay
11,76800.0
538,2565042.179877509
2,1, 1,21, 0,16,20.00,30.00,WinterDesignDay
11,76800.0
538,2580353.6266325926
2,1, 1,21, 0,16,30.00,40.00,WinterDesignDay
11,76800.0
538,2595295.1537405066
2,1, 1,21, 0,16,40.00,50.00,WinterDesignDay
11,76800.0
538,2609572.9949414283
2,1, 1,21, 0,16,50.00,60.00,WinterDesignDay
11,76800.0
538,2622997.300041748
2,1, 1,21, 0,17, 0.00,10.00,WinterDesignDay
11,76800.0
538,2635404.920594894
2,1, 1,21, 0,17,10.00,20.00,WinterDesignDay
11,76800.0
538,2646622.6870024786
2,1, 1,21, 0,17,20.00,30.00,WinterDesignDay
11,76800.0
538,2653827.8555843914
2,1, 1,21, 0,17,30.00,40.00,WinterDesignDay
11,76800.0
538,2661335.21127374
2,1, 1,21, 0,17,40.00,50.00,WinterDesignDay
11,76800.0
538,2667958.8189557553
2,1, 1,21, 0,17,50.00,60.00,WinterDesignDay
11,76800.0
538,2672672.169301248
2,1, 1,21, 0,18, 0.00,10.00,WinterDesignDay
11,76800.0
538,2675078.384802859
2,1, 1,21, 0,18,10.00,20.00,WinterDesignDay
11,76800.0
538,2674872.2177885403
2,1, 1,21, 0,18,20.00,30.00,WinterDesignDay
11,76800.0
538,2671753.9904375467
2,1, 1,21, 0,18,30.00,40.00,WinterDesignDay
11,76800.0
538,2664239.584730217
2,1, 1,21, 0,18,40.00,50.00,WinterDesignDay
11,76800.0
538,2654338.293676763
2,1, 1,21, 0,18,50.00,60.00,WinterDesignDay
11,76800.0
538,2640660.0305655617
2,1, 1,21, 0,19, 0.00,10.00,WinterDesignDay
11,76800.0
538,2627069.9695633184
2,1, 1,21, 0,19,10.00,20.00,WinterDesignDay
11,76800.0
538,2609706.455608055
2,1, 1,21, 0,19,20.00,30.00,WinterDesignDay
11,76800.0
538,2586990.0210386515
2,1, 1,21, 0,19,30.00,40.00,WinterDesignDay
11,76800.0
538,2559366.6946517164
2,1, 1,21, 0,19,40.00,50.00,WinterDesignDay
11,76800.0
538,2527986.360767799
2,1, 1,21, 0,19,50.00,60.00,WinterDesignDay
11,76800.0
538,2494025.7579444125
2,1, 1,21, 0,20, 0.00,10.00,WinterDesignDay
11,76800.0
538,2458581.7182324436
2,1, 1,21, 0,20,10.00,20.00,WinterDesignDay
11,76800.0
538,2422600.758335852
2,1, 1,21, 0,20,20.00,30.00,WinterDesignDay
11,76800.0
538,2386646.6898799124
2,1, 1,21, 0,20,30.00,40.00,WinterDesignDay
11,76800.0
538,2351101.6726405034
2,1, 1,21, 0,20,40.00,50.00,WinterDesignDay
11,76800.0
538,2316144.137346437
2,1, 1,21, 0,20,50.00,60.00,WinterDesignDay
11,76800.0
538,2281856.6369972304
2,1, 1,21, 0,21, 0.00,10.00,WinterDesignDay
11,76800.0
538,2248405.118387382
2,1, 1,21, 0,21,10.00,20.00,WinterDesignDay
11,76800.0
538,2215885.7281683143
2,1, 1,21, 0,21,20.00,30.00,WinterDesignDay
11,76800.0
538,2184351.2091978416
2,1, 1,21, 0,21,30.00,40.00,WinterDesignDay
11,76800.0
538,2153826.7698442712
2,1, 1,21, 0,21,40.00,50.00,WinterDesignDay
11,76800.0
538,2124320.1542018857
2,1, 1,21, 0,21,50.00,60.00,WinterDesignDay
11,76800.0
538,2095828.0792904033
2,1, 1,21, 0,22, 0.00,10.00,WinterDesignDay
11,76800.0
538,2068340.1760338624
2,1, 1,21, 0,22,10.00,20.00,WinterDesignDay
11,76800.0
538,2041841.4933377614
2,1, 1,21, 0,22,20.00,30.00,WinterDesignDay
11,76800.0
538,2016314.230836254
2,1, 1,21, 0,22,30.00,40.00,WinterDesignDay
11,76800.0
538,1991739.0281573965
2,1, 1,21, 0,22,40.00,50.00,WinterDesignDay
11,76800.0
538,1968095.967481091
2,1, 1,21, 0,22,50.00,60.00,WinterDesignDay
11,76800.0
538,1945365.3889074198
2,1, 1,21, 0,23, 0.00,10.00,WinterDesignDay
11,76800.0
538,1923528.6034058298
2,1, 1,21, 0,23,10.00,20.00,WinterDesignDay
11,76800.0
538,1902568.6002083053
2,1, 1,21, 0,23,20.00,30.00,WinterDesignDay
11,76800.0
538,1882610.5452872333
2,1, 1,21, 0,23,30.00,40.00,WinterDesignDay
11,76800.0
538,1863224.7341475175
2,1, 1,21, 0,23,40.00,50.00,WinterDesignDay
11,76800.0
538,1844954.7350172289
2,1, 1,21, 0,23,50.00,60.00,WinterDesignDay
11,76800.0
538,1827419.374914055
2,1, 1,21, 0,24, 0.00,10.00,WinterDesignDay
11,76800.0
538,1810855.7882717382
2,1, 1,21, 0,24,10.00,20.00,WinterDesignDay
11,76800.0
538,1795368.1094947683
2,1, 1,21, 0,24,20.00,30.00,WinterDesignDay
11,76800.0
538,1779920.684164274
2,1, 1,21, 0,24,30.00,40.00,WinterDesignDay
11,76800.0
538,1765034.9314920588
2,1, 1,21, 0,24,40.00,50.00,WinterDesignDay
11,76800.0
538,1750779.9446245467
2,1, 1,21, 0,24,50.00,60.00,WinterDesignDay
11,76800.0
538,1737215.8635479973
1,FORTALEZA ANN CLG .4% CONDNS DB=>MWB,  -3.78, -38.53,  -3.00,  25.00
2,1,12,21, 0, 1, 0.00,10.00,SummerDesignDay
11,76800.0
538,2793902.3418081906
2,1,12,21, 0, 1,10.00,20.00,SummerDesignDay
11,76800.0
538,2769757.969062125
2,1,12,21, 0, 1,20.00,30.00,SummerDesignDay
11,76800.0
538,2745891.8916130704
2,1,12,21, 0, 1,30.00,40.00,SummerDesignDay
11,76800.0
538,2722322.10792794
2,1,12,21, 0, 1,40.00,50.00,SummerDesignDay
11,76800.0
538,2699074.8006016514
2,1,12,21, 0, 1,50.00,60.00,SummerDesignDay
11,76800.0
538,2676165.672294853
2,1,12,21, 0, 2, 0.00,10.00,SummerDesignDay
11,76800.0
538,2655446.000063889
2,1,12,21, 0, 2,10.00,20.00,SummerDesignDay
11,76800.0
538,2634919.8326310315
2,1,12,21, 0, 2,20.00,30.00,SummerDesignDay
11,76800.0
538,2614542.567261148
2,1,12,21, 0, 2,30.00,40.00,SummerDesignDay
11,76800.0
538,2594363.896077015
2,1,12,21, 0, 2,40.00,50.00,SummerDesignDay
11,76800.0
538,2574450.6074119546
2,1,12,21, 0, 2,50.00,60.00,SummerDesignDay
11,76800.0
538,2554849.96909192
2,1,12,21, 0, 3, 0.00,10.00,SummerDesignDay
11,76800.0
538,2536535.0096684434
2,1,12,21, 0, 3,10.00,20.00,SummerDesignDay
11,76800.0
538,2518491.562769998
2,1,12,21, 0, 3,20.00,30.00,SummerDesignDay
11,76800.0
538,2500699.1694246246
2,1,12,21, 0, 3,30.00,40.00,SummerDesignDay
11,76800.0
538,2483181.090674141
2,1,12,21, 0, 3,40.00,50.00,SummerDesignDay
11,76800.0
538,2465968.577337442
2,1,12,21, 0, 3,50.00,60.00,SummerDesignDay
11,76800.0
538,2449082.7253456064
2,1,12,21, 0, 4, 0.00,10.00,SummerDesignDay
11,76800.0
538,2432532.476877714
2,1,12,21, 0, 4,10.00,20.00,SummerDesignDay
11,76800.0
538,2416318.5259652003
2,1,12,21, 0, 4,20.00,30.00,SummerDesignDay
11,76800.0
538,2400437.262938585
2,1,12,21, 0, 4,30.00,40.00,SummerDesignDay
11,76800.0
538,2384882.815732834
2,1,12,21, 0, 4,40.00,50.00,SummerDesignDay
11,76800.0
538,2369648.2776553277
2,1,12,21, 0, 4,50.00,60.00,SummerDesignDay
11,76800.0
538,2354726.232347332
2,1,12,21, 0, 5, 0.00,10.00,SummerDesignDay
11,76800.0
538,2341104.04827167
2,1,12,21, 0, 5,10.00,20.00,SummerDesignDay
11,76800.0
538,2327707.1300318744
2,1,12,21, 0, 5,20.00,30.00,SummerDesignDay
11,76800.0
538,2314505.378851528
2,1,12,21, 0, 5,30.00,40.00,SummerDesignDay
11,76800.0
538,2301515.1499089575
2,1,12,21, 0, 5,40.00,50.00,SummerDesignDay
11,76800.0
538,2288764.1772003747
2,1,12,21, 0, 5,50.00,60.00,SummerDesignDay
11,76800.0
538,2276273.2820282467
2,1,12,21, 0, 6, 0.00,10.00,SummerDesignDay
11,76800.0
538,2268156.1572883893
2,1,12,21, 0, 6,10.00,20.00,SummerDesignDay
11,76800.0
538,2260003.0811530026
2,1,12,21, 0, 6,20.00,30.00,SummerDesignDay
11,76800.0
538,2255561.2762330654
2,1,12,21, 0, 6,30.00,40.00,SummerDesignDay
11,76800.0
538,2253856.826338248
2,1,12,21, 0, 6,40.00,50.00,SummerDesignDay
11,76800.0
538,2253417.9358613943
2,1,12,21, 0, 6,50.00,60.00,SummerDesignDay
11,76800.0
538,2254628.7101717996
2,1,12,21, 0, 7, 0.00,10.00,SummerDesignDay
11,76800.0
538,2261557.1859689383
2,1,12,21, 0, 7,10.00,20.00,SummerDesignDay
11,76800.0
538,2269273.022568892
2,1,12,21, 0, 7,20.00,30.00,SummerDesignDay
11,76800.0
538,2279856.188196059
2,1,12,21, 0, 7,30.00,40.00,SummerDesignDay
11,76800.0
538,2291665.1573565644
2,1,12,21, 0, 7,40.00,50.00,SummerDesignDay
11,76800.0
538,2305750.9259952344
2,1,12,21, 0, 7,50.00,60.00,SummerDesignDay
11,76800.0
538,2322799.033851656
2,1,12,21, 0, 8, 0.00,10.00,SummerDesignDay
11,76800.0
538,2353590.3162651286
2,1,12,21, 0, 8,10.00,20.00,SummerDesignDay
11,76800.0
538,2386758.9002768137
2,1,12,21, 0, 8,20.00,30.00,SummerDesignDay
11,76800.0
538,2421862.1677733413
2,1,12,21, 0, 8,30.00,40.00,SummerDesignDay
11,76800.0
538,2458840.729450385
2,1,12,21, 0, 8,40.00,50.00,SummerDesignDay
11,76800.0
538,2497863.1698724134
2,1,12,21, 0, 8,50.00,60.00,SummerDesignDay
11,76800.0
538,2541638.698512551
2,1,12,21, 0, 9, 0.00,10.00,SummerDesignDay
11,76800.0
538,2586735.122954442
2,1,12,21, 0, 9,10.00,20.00,SummerDesignDay
11,76800.0
538,2632055.0119178295
2,1,12,21, 0, 9,20.00,30.00,SummerDesignDay
11,76800.0
538,2678196.961148506
2,1,12,21, 0, 9,30.00,40.00,SummerDesignDay
11,76800.0
538,2725183.3032574686
2,1,12,21, 0, 9,40.00,50.00,SummerDesignDay
11,76800.0
538,2772903.5715371426
2,1,12,21, 0, 9,50.00,60.00,SummerDesignDay
11,76800.0
538,2821165.7017969703
2,1,12,21, 0,10, 0.00,10.00,SummerDesignDay
11,76800.0
538,2867844.0334028564
2,1,12,21, 0,10,10.00,20.00,SummerDesignDay
11,76800.0
538,2914872.551303556
2,1,12,21, 0,10,20.00,30.00,SummerDesignDay
11,76800.0
538,2962118.2382886577
2,1,12,21, 0,10,30.00,40.00,SummerDesignDay
11,76800.0
538,3009361.244126827
2,1,12,21, 0,10,40.00,50.00,SummerDesignDay
11,76800.0
538,3056377.020385291
2,1,12,21, 0,10,50.00,60.00,SummerDesignDay
11,76800.0
538,3102981.115426415
2,1,12,21, 0,11, 0.00,10.00,SummerDesignDay
11,76800.0
538,3147253.0042040576
2,1,12,21, 0,11,10.00,20.00,SummerDesignDay
11,76800.0
538,3191097.0950833466
2,1,12,21, 0,11,20.00,30.00,SummerDesignDay
11,76800.0
538,3234469.5159428213
2,1,12,21, 0,11,30.00,40.00,SummerDesignDay
11,76800.0
538,3277228.925085803
2,1,12,21, 0,11,40.00,50.00,SummerDesignDay
11,76800.0
538,3319225.624104182
2,1,12,21, 0,11,50.00,60.00,SummerDesignDay
11,76800.0
538,3360347.598109021
2,1,12,21, 0,12, 0.00,10.00,SummerDesignDay
11,76800.0
538,3396323.2054950343
2,1,12,21, 0,12,10.00,20.00,SummerDesignDay
11,76800.0
538,3431837.091353099
2,1,12,21, 0,12,20.00,30.00,SummerDesignDay
11,76800.0
538,3466919.5207817866
2,1,12,21, 0,12,30.00,40.00,SummerDesignDay
11,76800.0
538,3501325.482959024
2,1,12,21, 0,12,40.00,50.00,SummerDesignDay
11,76800.0
538,3534781.7100810437
2,1,12,21, 0,12,50.00,60.00,SummerDesignDay
11,76800.0
538,3567163.8244454484
2,1,12,21, 0,13, 0.00,10.00,SummerDesignDay
11,76800.0
538,3596975.8260479053
2,1,12,21, 0,13,10.00,20.00,SummerDesignDay
11,76800.0
538,3626324.979639286
2,1,12,21, 0,13,20.00,30.00,SummerDesignDay
11,76800.0
538,3655585.2371302093
2,1,12,21, 0,13,30.00,40.00,SummerDesignDay
11,76800.0
538,3684974.1673826
2,1,12,21, 0,13,40.00,50.00,SummerDesignDay
11,76800.0
538,3714476.390209004
2,1,12,21, 0,13,50.00,60.00,SummerDesignDay
11,76800.0
538,3744354.581366975
2,1,12,21, 0,14, 0.00,10.00,SummerDesignDay
11,76800.0
538,3772295.187232932
2,1,12,21, 0,14,10.00,20.00,SummerDesignDay
11,76800.0
538,3800868.6714359717
2,1,12,21, 0,14,20.00,30.00,SummerDesignDay
11,76800.0
538,3830057.197416302
2,1,12,21, 0,14,30.00,40.00,SummerDesignDay
11,76800.0
538,3859670.2851349902
2,1,12,21, 0,14,40.00,50.00,SummerDesignDay
11,76800.0
538,3889493.983603742
2,1,12,21, 0,14,50.00,60.00,SummerDesignDay
11,76800.0
538,3919351.558058353
2,1,12,21, 0,15, 0.00,10.00,SummerDesignDay
11,76800.0
538,3945292.9734425778
2,1,12,21, 0,15,10.00,20.00,SummerDesignDay
11,76800.0
538,3971470.2944411854
2,1,12,21, 0,15,20.00,30.00,SummerDesignDay
11,76800.0
538,3997799.7141757417
2,1,12,21, 0,15,30.00,40.00,SummerDesignDay
11,76800.0
538,4023907.5217388314
2,1,12,21, 0,15,40.00,50.00,SummerDesignDay
11,76800.0
538,4049367.1943444856
2,1,12,21, 0,15,50.00,60.00,SummerDesignDay
11,76800.0
538,4073973.2973052645
2,1,12,21, 0,16, 0.00,10.00,SummerDesignDay
11,76800.0
538,4092997.784041685
2,1,12,21, 0,16,10.00,20.00,SummerDesignDay
11,76800.0
538,4108031.0640903516
2,1,12,21, 0,16,20.00,30.00,SummerDesignDay
11,76800.0
538,4124248.8241408137
2,1,12,21, 0,16,30.00,40.00,SummerDesignDay
11,76800.0
538,4140032.5934540373
2,1,12,21, 0,16,40.00,50.00,SummerDesignDay
11,76800.0
538,4154026.7935912227
2,1,12,21, 0,16,50.00,60.00,SummerDesignDay
11,76800.0
538,4165702.2245766125
2,1,12,21, 0,17, 0.00,10.00,SummerDesignDay
11,76800.0
538,4173344.107186994
2,1,12,21, 0,17,10.00,20.00,SummerDesignDay
11,76800.0
538,4178449.4750447166
2,1,12,21, 0,17,20.00,30.00,SummerDesignDay
11,76800.0
538,4180870.7221159637
2,1,12,21, 0,17,30.00,40.00,SummerDesignDay
11,76800.0
538,4180418.741064508
2,1,12,21, 0,17,40.00,50.00,SummerDesignDay
11,76800.0
538,4175338.8334135786
2,1,12,21, 0,17,50.00,60.00,SummerDesignDay
11,76800.0
538,4167901.1801853795
2,1,12,21, 0,18, 0.00,10.00,SummerDesignDay
11,76800.0
538,4155822.2659362834
2,1,12,21, 0,18,10.00,20.00,SummerDesignDay
11,76800.0
538,4139636.944746428
2,1,12,21, 0,18,20.00,30.00,SummerDesignDay
11,76800.0
538,4120301.226848828
2,1,12,21, 0,18,30.00,40.00,SummerDesignDay
11,76800.0
538,4097172.1026994577
2,1,12,21, 0,18,40.00,50.00,SummerDesignDay
11,76800.0
538,4075380.402265
2,1,12,21, 0,18,50.00,60.00,SummerDesignDay
11,76800.0
538,4050638.950484359
2,1,12,21, 0,19, 0.00,10.00,SummerDesignDay
11,76800.0
538,4017809.748599624
2,1,12,21, 0,19,10.00,20.00,SummerDesignDay
11,76800.0
538,3981574.60380986
2,1,12,21, 0,19,20.00,30.00,SummerDesignDay
11,76800.0
538,3942959.9509517374
2,1,12,21, 0,19,30.00,40.00,SummerDesignDay
11,76800.0
538,3902688.6801245357
2,1,12,21, 0,19,40.00,50.00,SummerDesignDay
11,76800.0
538,3861128.2170383716
2,1,12,21, 0,19,50.00,60.00,SummerDesignDay
11,76800.0
538,3818885.701366139
2,1,12,21, 0,20, 0.00,10.00,SummerDesignDay
11,76800.0
538,3779310.2628593678
2,1,12,21, 0,20,10.00,20.00,SummerDesignDay
11,76800.0
538,3739256.8713607253
2,1,12,21, 0,20,20.00,30.00,SummerDesignDay
11,76800.0
538,3698873.7650362286
2,1,12,21, 0,20,30.00,40.00,SummerDesignDay
11,76800.0
538,3658450.2667968245
2,1,12,21, 0,20,40.00,50.00,SummerDesignDay
11,76800.0
538,3618235.0047493065
2,1,12,21, 0,20,50.00,60.00,SummerDesignDay
11,76800.0
538,3578381.9210563675
2,1,12,21, 0,21, 0.00,10.00,SummerDesignDay
11,76800.0
538,3540540.5186480363
2,1,12,21, 0,21,10.00,20.00,SummerDesignDay
11,76800.0
538,3503031.476972152
2,1,12,21, 0,21,20.00,30.00,SummerDesignDay
11,76800.0
538,3465859.699938641
2,1,12,21, 0,21,30.00,40.00,SummerDesignDay
11,76800.0
538,3429114.2351840357
2,1,12,21, 0,21,40.00,50.00,SummerDesignDay
11,76800.0
538,3392878.565281204
2,1,12,21, 0,21,50.00,60.00,SummerDesignDay
11,76800.0
538,3357199.111472901
2,1,12,21, 0,22, 0.00,10.00,SummerDesignDay
11,76800.0
538,3322090.986384003
2,1,12,21, 0,22,10.00,20.00,SummerDesignDay
11,76800.0
538,3287552.58942583
2,1,12,21, 0,22,20.00,30.00,SummerDesignDay
11,76800.0
538,3253720.2350260625
2,1,12,21, 0,22,30.00,40.00,SummerDesignDay
11,76800.0
538,3220363.809675122
2,1,12,21, 0,22,40.00,50.00,SummerDesignDay
11,76800.0
538,3187479.5260159667
2,1,12,21, 0,22,50.00,60.00,SummerDesignDay
11,76800.0
538,3155106.087102214
2,1,12,21, 0,23, 0.00,10.00,SummerDesignDay
11,76800.0
538,3124917.5123883607
2,1,12,21, 0,23,10.00,20.00,SummerDesignDay
11,76800.0
538,3095070.918059417
2,1,12,21, 0,23,20.00,30.00,SummerDesignDay
11,76800.0
538,3065520.572046137
2,1,12,21, 0,23,30.00,40.00,SummerDesignDay
11,76800.0
538,3036316.7695228383
2,1,12,21, 0,23,40.00,50.00,SummerDesignDay
11,76800.0
538,3007520.687140001
2,1,12,21, 0,23,50.00,60.00,SummerDesignDay
11,76800.0
538,2979168.4021022427
2,1,12,21, 0,24, 0.00,10.00,SummerDesignDay
11,76800.0
538,2951270.8876241227
2,1,12,21, 0,24,10.00,20.00,SummerDesignDay
11,76800.0
538,2923824.909264731
2,1,12,21, 0,24,20.00,30.00,SummerDesignDay
11,76800.0
538,2896821.658422288
2,1,12,21, 0,24,30.00,40.00,SummerDesignDay
11,76800.0
538,2870250.265603577
2,1,12,21, 0,24,40.00,50.00,SummerDesignDay
11,76800.0
538,2844098.9379853075
2,1,12,21, 0,24,50.00,60.00,SummerDesignDay
11,76800.0
538,2818355.276818912
1,SIMULACAO_ANUAL,  -3.78, -38.53,  -3.00,  25.00
2,1, 1, 1, 0, 1, 0.00,10.00,Tuesday
11,76800.0
538,431446.05257895694
2,1, 1, 1, 0, 1,10.00,20.00,Tuesday
11,76800.0
538,389316.8783083874
2,1, 1, 1, 0, 1,20.00,30.00,Tuesday
11,76800.0
538,348299.90371693455
2,1, 1, 1, 0, 1,30.00,40.00,Tuesday
11,76800.0
538,307867.6066852867
2,1, 1, 1, 0, 1,40.00,50.00,Tuesday
11,76800.0
538,267415.2378045728
2,1, 1, 1, 0, 1,50.00,60.00,Tuesday
11,76800.0
538,226463.43180687755
2,1, 1, 1, 0, 2, 0.00,10.00,Tuesday
11,76800.0
538,211370.73365608507
2,1, 1, 1, 0, 2,10.00,20.00,Tuesday
11,76800.0
538,195739.6410744695
2,1, 1, 1, 0, 2,20.00,30.00,Tuesday
11,76800.0
538,179227.33295011887
2,1, 1, 1, 0, 2,30.00,40.00,Tuesday
11,76800.0
538,161865.3025791974
2,1, 1, 1, 0, 2,40.00,50.00,Tuesday
11,76800.0
538,143872.58416872064
2,1, 1, 1, 0, 2,50.00,60.00,Tuesday
11,76800.0
538,125477.1141105135
2,1, 1, 1, 0, 3, 0.00,10.00,Tuesday
11,76800.0
538,107076.95803751444
2,1, 1, 1, 0, 3,10.00,20.00,Tuesday
11,76800.0
538,88632.11260089515
2,1, 1, 1, 0, 3,20.00,30.00,Tuesday
11,76800.0
538,70363.39217007915
2,1, 1, 1, 0, 3,30.00,40.00,Tuesday
11,76800.0
538,52441.90926399426
2,1, 1, 1, 0, 3,40.00,50.00,Tuesday
11,76800.0
538,34703.18298923287
2,1, 1, 1, 0, 3,50.00,60.00,Tuesday
11,76800.0
538,16798.153704000055
2,1, 1, 1, 0, 4, 0.00,10.00,Tuesday
11,76800.0
538,0.0
2,1, 1, 1, 0, 4,10.00,20.00,Tuesday
11,76800.0
538,0.0
2,1, 1, 1, 0, 4,20.00,30.00,Tuesday
11,76800.0
538,0.0
2,1, 1, 1, 0, 4,30.00,40.00,Tuesday
11,76800.0
538,0.0
2,1, 1, 1, 0, 4,40.00,50.00,Tuesday
11,76800.0
538,0.0
2,1, 1, 1, 0, 4,50.00,60.00,Tuesday
11,76800.0
538,0.0
2,1, 1, 1, 0, 5, 0.00,10.00,Tuesday
11,76800.0
538,0.0
2,1, 1, 1, 0, 5,10.00,20.00,Tuesday
11,76800.0
538,0.0
2,1, 1, 1, 0, 5,20.00,30.00,Tuesday
11,76800.0
538,0.0
2,1, 1, 1, 0, 5,30.00,40.00,Tuesday
11,76800.0
538,0.0
2,1, 1, 1, 0, 5,40.00,50.00,Tuesday
11,76800.0
538,0.0
2,1, 1, 1, 0, 5,50.00,60.00,Tuesday
11,76800.0
538,0.0
2,1, 1, 1, 0, 6, 0.00,10.00,Tuesday
11,76800.0
538,0.0
2,1, 1, 1, 0, 6,10.00,20.00,Tuesday
11,76800.0
538,0.0
2,1, 1, 1, 0, 6,20.00,30.00,Tuesday
11,76800.0
538,0.0
2,1, 1, 1, 0, 6,30.00,40.00,Tuesday
11,76800.0
538,0.0
2,1, 1, 1, 0, 6,40.00,50.00,Tuesday
11,76800.0
538,0.0
2,1, 1, 1, 0, 6,50.00,60.00,Tuesday
11,76800.0
538,0.0
2,1, 1, 1, 0, 7, 0.00,10.00,Tuesday
11,76800.0
538,0.0
2,1, 1, 1, 0, 7,10.00,20.00,Tuesday
11,76800.0
538,0.0
2,1, 1, 1, 0, 7,20.00,30.00,Tuesday
11,76800.0
538,0.0
2,1, 1, 1, 0, 7,30.00,40.00,Tuesday
11,76800.0
538,0.0
2,1, 1, 1, 0, 7,40.00,50.00,Tuesday
11,76800.0
538,0.0
2,1, 1, 1, 0, 7,50.00,60.00,Tuesday
11,76800.0
538,0.0
2,1, 1, 1, 0, 8, 0.00,10.00,Tuesday
11,960000.0
538,3306351.111849106
2,1, 1, 1, 0, 8,10.00,20.00,Tuesday
11,960000.0
538,3831379.405541
2,1, 1, 1, 0, 8,20.00,30.00,Tuesday
11,960000.0
538,3099232.4068598775
2,1, 1, 1, 0, 8,30.00,40.00,Tuesday
11,960000.0
538,2990809.0350116943
2,1, 1, 1, 0, 8,40.00,50.00,Tuesday
11,960000.0
538,2865576.809552313
2,1, 1, 1, 0, 8,50.00,60.00,Tuesday
11,960000.0
538,2815142.068775887
2,1, 1, 1, 0, 9, 0.00,10.00,Tuesday
11,960000.0
538,2811663.6132332846
2,1, 1, 1, 0, 9,10.00,20.00,Tuesday
11,960000.0
538,2830267.4886528165
2,1, 1, 1, 0, 9,20.00,30.00,Tuesday
11,960000.0
538,2859546.305356395
2,1, 1, 1, 0, 9,30.00,40.00,Tuesday
11,960000.0
538,2891958.2861691224
2,1, 1, 1, 0, 9,40.00,50.00,Tuesday
11,960000.0
538,2928010.0596784935
2,1, 1, 1, 0, 9,50.00,60.00,Tuesday
11,960000.0
538,2967580.4816711205
2,1, 1, 1, 0,10, 0.00,10.00,Tuesday
11,960000.0
538,3013736.6118734926
2,1, 1, 1, 0,10,10.00,20.00,Tuesday
11,960000.0
538,3059130.1415911866
2,1, 1, 1, 0,10,20.00,30.00,Tuesday
11,960000.0
538,3102145.028207939
2,1, 1, 1, 0,10,30.00,40.00,Tuesday
11,960000.0
538,3143230.0872865207
2,1, 1, 1, 0,10,40.00,50.00,Tuesday
11,960000.0
538,3187330.210474236
2,1, 1, 1, 0,10,50.00,60.00,Tuesday
11,960000.0
538,3226864.9081209255
2,1, 1, 1, 0,11, 0.00,10.00,Tuesday
11,960000.0
538,3263633.0159967155
2,1, 1, 1, 0,11,10.00,20.00,Tuesday
11,960000.0
538,3298027.596935996
2,1, 1, 1, 0,11,20.00,30.00,Tuesday
11,960000.0
538,3330178.5913646105
2,1, 1, 1, 0,11,30.00,40.00,Tuesday
11,960000.0
538,3363290.059620271
2,1, 1, 1, 0,11,40.00,50.00,Tuesday
11,960000.0
538,3403628.961319937
2,1, 1, 1, 0,11,50.00,60.00,Tuesday
11,960000.0
538,3437749.672259869
2,1, 1, 1, 0,12, 0.00,10.00,Tuesday
11,960000.0
538,3468446.3052298874
2,1, 1, 1, 0,12,10.00,20.00,Tuesday
11,960000.0
538,3499703.8672984876
2,1, 1, 1, 0,12,20.00,30.00,Tuesday
11,960000.0
538,3549429.666056804
2,1, 1, 1, 0,12,30.00,40.00,Tuesday
11,960000.0
538,3563848.7533493256
2,1, 1, 1, 0,12,40.00,50.00,Tuesday
11,960000.0
538,3574294.6302917255
2,1, 1, 1, 0,12,50.00,60.00,Tuesday
11,960000.0
538,3597074.5872914377
2,1, 1, 1, 0,13, 0.00,10.00,Tuesday
11,960000.0
538,2847161.6727586277
2,1, 1, 1, 0,13,10.00,20.00,Tuesday
11,960000.0
538,2814845.851150479
2,1, 1, 1, 0,13,20.00,30.00,Tuesday
11,960000.0
538,2782489.6709373174
2,1, 1, 1, 0,13,30.00,40.00,Tuesday
11,960000.0
538,2768829.9387084655
2,1, 1, 1, 0,13,40.00,50.00,Tuesday
11,960000.0
538,2771252.138216863
2,1, 1, 1, 0,13,50.00,60.00,Tuesday
11,960000.0
538,2782087.7435887023
2,1, 1, 1, 0,14, 0.00,10.00,Tuesday
11,960000.0
538,2794708.048718229
2,1, 1, 1, 0,14,10.00,20.00,Tuesday
11,960000.0
538,2807031.212253752
2,1, 1, 1, 0,14,20.00,30.00,Tuesday
11,960000.0
538,2818069.9990919493
2,1, 1, 1, 0,14,30.00,40.00,Tuesday
11,960000.0
538,2836263.0287738754
2,1, 1, 1, 0,14,40.00,50.00,Tuesday
11,960000.0
538,2855782.4277263163
2,1, 1, 1, 0,14,50.00,60.00,Tuesday
11,960000.0
538,2874062.7142637917
2,1, 1, 1, 0,15, 0.00,10.00,Tuesday
11,960000.0
538,3587222.2815779145
2,1, 1, 1, 0,15,10.00,20.00,Tuesday
11,960000.0
538,3674349.204819986
2,1, 1, 1, 0,15,20.00,30.00,Tuesday
11,960000.0
538,3760028.9469794147
2,1, 1, 1, 0,15,30.00,40.00,Tuesday
11,960000.0
538,3812411.4956024396
2,1, 1, 1, 0,15,40.00,50.00,Tuesday
11,960000.0
538,3838527.644240244
2,1, 1, 1, 0,15,50.00,60.00,Tuesday
11,960000.0
538,3853231.927832472
2,1, 1, 1, 0,16, 0.00,10.00,Tuesday
11,960000.0
538,3865118.8716259496
2,1, 1, 1, 0,16,10.00,20.00,Tuesday
11,960000.0
538,3877944.52380953
2,1, 1, 1, 0,16,20.00,30.00,Tuesday
11,960000.0
538,3891149.572286085
2,1, 1, 1, 0,16,30.00,40.00,Tuesday
11,960000.0
538,3901701.859135099
2,1, 1, 1, 0,16,40.00,50.00,Tuesday
11,960000.0
538,3910062.627888276
2,1, 1, 1, 0,16,50.00,60.00,Tuesday
11,960000.0
538,3916459.5472805
2,1, 1, 1, 0,17, 0.00,10.00,Tuesday
11,960000.0
538,3919748.887474307
2,1, 1, 1, 0,17,10.00,20.00,Tuesday
11,960000.0
538,3919498.9764232757
2,1, 1, 1, 0,17,20.00,30.00,Tuesday
11,960000.0
538,3915428.1391771697
2,1, 1, 1, 0,17,30.00,40.00,Tuesday
11,960000.0
538,3907863.771471322
2,1, 1, 1, 0,17,40.00,50.00,Tuesday
11,960000.0
538,3897403.212890044
2,1, 1, 1, 0,17,50.00,60.00,Tuesday